Program Version,EnergyPlus, Version 9.4.0-998c4b761e, YMD=2024.08.20 00:42
1,5,Environment Title[],Latitude[deg],Longitude[deg],Time Zone[],Elevation[m]
2,8,Day of Simulation[],Month[],Day of Month[],DST Indicator[1=yes 0=no],Hour[],StartMinute[],EndMinute[],DayType
3,5,Cumulative Day of Simulation[],Month[],Day of Month[],DST Indicator[1=yes 0=no],DayType  ! When Daily Meters Requested
4,2,Cumulative Days of Simulation[],Month[]  ! When Monthly Meters Requested
5,1,Cumulative Days of Simulation[] ! When Run Period Meters Requested
6,1,Calendar Year of Simulation[] ! When Annual Meters Requested
294,1,InteriorLights:Electricity [J] !Hourly
1128,1,InteriorEquipment:Electricity [J] !Hourly
End of Data Dictionary
1,RUNPERIOD 1,   1.37, 103.98,   8.00,  16.00
2,1,10,10, 0, 1, 0.00,60.00,Tuesday
294,109557089.76073398
1128,55263683.77665777
2,1,10,10, 0, 2, 0.00,60.00,Tuesday
294,109557089.76073398
1128,55263683.77665777
2,1,10,10, 0, 3, 0.00,60.00,Tuesday
294,109557089.76073398
1128,55263683.77665777
2,1,10,10, 0, 4, 0.00,60.00,Tuesday
294,109557089.76073398
1128,55263683.77665777
2,1,10,10, 0, 5, 0.00,60.00,Tuesday
294,109557089.76073398
1128,55263683.77665777
2,1,10,10, 0, 6, 0.00,60.00,Tuesday
294,109557089.76073398
1128,55263683.77665777
2,1,10,10, 0, 7, 0.00,60.00,Tuesday
294,170298179.52143527
1128,55263683.77665777
2,1,10,10, 0, 8, 0.00,60.00,Tuesday
294,434307712.3256805
1128,420003996.70259889
2,1,10,10, 0, 9, 0.00,60.00,Tuesday
294,1107659136.9769109
1128,946114266.2563808
2,1,10,10, 0,10, 0.00,60.00,Tuesday
294,1107659136.9769109
1128,946114266.2563808
2,1,10,10, 0,11, 0.00,60.00,Tuesday
294,1107659136.9769109
1128,946114266.2563808
2,1,10,10, 0,12, 0.00,60.00,Tuesday
294,1107659136.9769109
1128,946114266.2563808
2,1,10,10, 0,13, 0.00,60.00,Tuesday
294,1107659136.9769109
1128,420003996.70259889
2,1,10,10, 0,14, 0.00,60.00,Tuesday
294,1107659136.9769109
1128,946114266.2563808
2,1,10,10, 0,15, 0.00,60.00,Tuesday
294,1107659136.9769109
1128,946114266.2563808
2,1,10,10, 0,16, 0.00,60.00,Tuesday
294,1107659136.9769109
1128,946114266.2563808
2,1,10,10, 0,17, 0.00,60.00,Tuesday
294,1107659136.9769109
1128,946114266.2563808
2,1,10,10, 0,18, 0.00,60.00,Tuesday
294,434307712.3256805
1128,420003996.70259889
2,1,10,10, 0,19, 0.00,60.00,Tuesday
294,219114179.52146796
1128,55263683.77665777
2,1,10,10, 0,20, 0.00,60.00,Tuesday
294,147357089.7607339
1128,55263683.77665777
2,1,10,10, 0,21, 0.00,60.00,Tuesday
294,147357089.7607339
1128,55263683.77665777
2,1,10,10, 0,22, 0.00,60.00,Tuesday
294,147357089.7607339
1128,55263683.77665777
2,1,10,10, 0,23, 0.00,60.00,Tuesday
294,147357089.7607339
1128,55263683.77665777
2,1,10,10, 0,24, 0.00,60.00,Tuesday
294,147357089.7607339
1128,55263683.77665777
End of Data
 Number of Records Written=          48
