Program Version,EnergyPlus, Version 9.4.0-998c4b761e, YMD=2024.08.05 14:18
1,5,Environment Title[],Latitude[deg],Longitude[deg],Time Zone[],Elevation[m]
2,8,Day of Simulation[],Month[],Day of Month[],DST Indicator[1=yes 0=no],Hour[],StartMinute[],EndMinute[],DayType
3,5,Cumulative Day of Simulation[],Month[],Day of Month[],DST Indicator[1=yes 0=no],DayType  ! When Daily Meters Requested
4,2,Cumulative Days of Simulation[],Month[]  ! When Monthly Meters Requested
5,1,Cumulative Days of Simulation[] ! When Run Period Meters Requested
6,1,Calendar Year of Simulation[] ! When Annual Meters Requested
12,1,Electricity:Facility [J] !Hourly
1748,1,Fans:Electricity [J] !Hourly
1825,1,Cooling:Electricity [J] !Hourly
1631,1,Heating:Electricity [J] !Hourly
48,1,InteriorLights:Electricity [J] !Hourly
435,1,InteriorEquipment:Electricity [J] !Hourly
1685,1,NaturalGas:Facility [J] !Hourly
1709,1,Heating:NaturalGas [J] !Hourly
2122,1,Water Heater:WaterSystems:NaturalGas [J] !Hourly
14,9,Electricity:Facility [J] !Monthly [Value,Min,Day,Hour,Minute,Max,Day,Hour,Minute]
1687,9,NaturalGas:Facility [J] !Monthly [Value,Min,Day,Hour,Minute,Max,Day,Hour,Minute]
2192,9,CO2:Facility [kg] !Monthly [Value,Min,Day,Hour,Minute,Max,Day,Hour,Minute]
2217,9,CO:Facility [kg] !Monthly [Value,Min,Day,Hour,Minute,Max,Day,Hour,Minute]
2242,9,CH4:Facility [kg] !Monthly [Value,Min,Day,Hour,Minute,Max,Day,Hour,Minute]
2267,9,NOx:Facility [kg] !Monthly [Value,Min,Day,Hour,Minute,Max,Day,Hour,Minute]
2292,9,N2O:Facility [kg] !Monthly [Value,Min,Day,Hour,Minute,Max,Day,Hour,Minute]
2317,9,SO2:Facility [kg] !Monthly [Value,Min,Day,Hour,Minute,Max,Day,Hour,Minute]
2342,9,PM:Facility [kg] !Monthly [Value,Min,Day,Hour,Minute,Max,Day,Hour,Minute]
2367,9,PM10:Facility [kg] !Monthly [Value,Min,Day,Hour,Minute,Max,Day,Hour,Minute]
2392,9,PM2.5:Facility [kg] !Monthly [Value,Min,Day,Hour,Minute,Max,Day,Hour,Minute]
2417,9,NH3:Facility [kg] !Monthly [Value,Min,Day,Hour,Minute,Max,Day,Hour,Minute]
2442,9,NMVOC:Facility [kg] !Monthly [Value,Min,Day,Hour,Minute,Max,Day,Hour,Minute]
2467,9,Hg:Facility [kg] !Monthly [Value,Min,Day,Hour,Minute,Max,Day,Hour,Minute]
2492,9,Pb:Facility [kg] !Monthly [Value,Min,Day,Hour,Minute,Max,Day,Hour,Minute]
2517,9,WaterEnvironmentalFactors:Facility [L] !Monthly [Value,Min,Day,Hour,Minute,Max,Day,Hour,Minute]
2542,9,Nuclear High:Facility [kg] !Monthly [Value,Min,Day,Hour,Minute,Max,Day,Hour,Minute]
2567,9,Nuclear Low:Facility [m3] !Monthly [Value,Min,Day,Hour,Minute,Max,Day,Hour,Minute]
2839,9,Carbon Equivalent:Facility [kg] !Monthly [Value,Min,Day,Hour,Minute,Max,Day,Hour,Minute]
End of Data Dictionary
1,CHICAGO ANN HTG 99.6% CONDNS DB HVAC Sizing Pass 1,  41.98, -87.92,  -6.00, 201.00
2,1, 1,21, 0, 1, 0.00,60.00,WinterDesignDay
12,751104810.9457358
48,0.0
435,0.0
1631,687289287.2523922
1685,19230751.07047034
1709,19158751.07047034
1748,10490739.354520057
1825,0.0
2122,72000.0
2,1, 1,21, 0, 2, 0.00,60.00,WinterDesignDay
12,601764258.9103335
48,0.0
435,0.0
1631,540046883.0878939
1685,17563287.540610538
1709,13592070.607227918
1748,8392591.483616045
1825,0.0
2122,3971216.9333826198
2,1, 1,21, 0, 3, 0.00,60.00,WinterDesignDay
12,755883376.4654803
48,0.0
435,0.0
1631,692067852.7721367
1685,20002691.821801515
1709,19930691.821801515
1748,10490739.354520057
1825,0.0
2122,72000.0
2,1, 1,21, 0, 4, 0.00,60.00,WinterDesignDay
12,605253445.3105317
48,0.0
435,0.0
1631,543536069.4880921
1685,18035558.359847569
1709,14064405.114733566
1748,8392591.483616045
1825,0.0
2122,3971153.245114001
2,1, 1,21, 0, 5, 0.00,60.00,WinterDesignDay
12,759655273.7811989
48,0.0
435,0.0
1631,695839750.0878553
1685,20466149.517977816
1709,20394149.517977816
1748,10490739.354520057
1825,0.0
2122,72000.0
2,1, 1,21, 0, 6, 0.00,60.00,WinterDesignDay
12,608009434.816699
48,0.0
435,0.0
1631,546292058.9942594
1685,18327351.0190809
1709,14355977.796682479
1748,8392591.483616043
1825,0.0
2122,3971373.222398421
2,1, 1,21, 0, 7, 0.00,60.00,WinterDesignDay
12,802163528.1188086
48,0.0
435,0.0
1631,736249856.554561
1685,4174757.3676490865
1709,4102757.3676490865
1748,12588887.225424068
1825,0.0
2122,72000.0
2,1, 1,21, 0, 8, 0.00,60.00,WinterDesignDay
12,708988829.8139701
48,0.0
435,18495296.7032967
1631,668991861.5464257
1685,506049039.60566446
1709,502077028.61571726
1748,12588887.225424068
1825,0.0
2122,3972010.9899471697
2,1, 1,21, 0, 9, 0.00,60.00,WinterDesignDay
12,686025881.5988833
48,0.0
435,16183384.61538461
1631,657223225.4192511
1685,503282848.5488806
1709,499310132.48950526
1748,12588887.225424068
1825,0.0
2122,3972716.05937533
2,1, 1,21, 0,10, 0.00,60.00,WinterDesignDay
12,681865856.3384454
48,0.0
435,24275076.923076918
1631,644971507.8511208
1685,505724580.843634
1709,497848672.0830864
1748,12588887.225424068
1825,0.0
2122,7875908.76054758
2,1, 1,21, 0,11, 0.00,60.00,WinterDesignDay
12,675161150.1209351
48,0.0
435,20807208.791208786
1631,641734669.7654787
1685,500890817.7862711
1709,496917243.19283989
1748,12588887.225424068
1825,0.0
2122,3973574.5934312117
2,1, 1,21, 0,12, 0.00,60.00,WinterDesignDay
12,674080682.3454044
48,0.0
435,28898901.098901094
1631,632562509.6822558
1685,500229238.27519848
1709,496254928.9232283
1748,12588887.225424068
1825,0.0
2122,3974309.351970106
2,1, 1,21, 0,13, 0.00,60.00,WinterDesignDay
12,668522809.7266675
48,0.0
435,24275076.923076918
1631,631628461.2393432
1685,503619244.8378544
1709,495743734.89314118
1748,12588887.225424068
1825,0.0
2122,7875509.9447133359
2,1, 1,21, 0,14, 0.00,60.00,WinterDesignDay
12,662229501.8092916
48,0.0
435,15027428.571428566
1631,634582801.6736155
1685,499324884.43371596
1709,495351323.4584689
1748,12588887.225424068
1825,0.0
2122,3973560.975247088
2,1, 1,21, 0,15, 0.00,60.00,WinterDesignDay
12,658085617.0660136
48,0.0
435,9247648.35164835
1631,636218697.1501178
1685,499012692.9909355
1709,495039883.12441727
1748,12588887.225424068
1825,0.0
2122,3972809.866518226
2,1, 1,21, 0,16, 0.00,60.00,WinterDesignDay
12,654701514.3802081
48,0.0
435,4623824.175824175
1631,637458418.6401364
1685,498759616.67910757
1709,494787163.86218616
1748,12588887.225424068
1825,0.0
2122,3972452.8169213745
2,1, 1,21, 0,17, 0.00,60.00,WinterDesignDay
12,671411873.8927577
48,0.0
435,5779780.219780219
1631,635248022.1087298
1685,498541842.3283217
1709,494569432.4881215
1748,12588887.225424068
1825,0.0
2122,3972409.840200131
2,1, 1,21, 0,18, 0.00,60.00,WinterDesignDay
12,705925674.4056999
48,0.0
435,6935736.263736261
1631,633076266.5777161
1685,494444256.44159808
1709,494372256.44159808
1748,12588887.225424068
1825,0.0
2122,72000.0
2,1, 1,21, 0,19, 0.00,60.00,WinterDesignDay
12,665507309.3414207
48,0.0
435,0.0
1631,602111415.2222579
1685,6795550.727263528
1709,2823920.1925443608
1748,10071109.780339254
1825,0.0
2122,3971630.5347191675
2,1, 1,21, 0,20, 0.00,60.00,WinterDesignDay
12,579019725.78352
48,0.0
435,0.0
1631,517302349.96108046
1685,9866292.615172904
1709,5895155.632321567
1748,8392591.483616045
1825,0.0
2122,3971136.9828513369
2,1, 1,21, 0,21, 0.00,60.00,WinterDesignDay
12,736757172.7197282
48,0.0
435,0.0
1631,672941649.0263846
1685,13309399.617303675
1709,13237399.617303675
1748,10490739.354520057
1825,0.0
2122,72000.0
2,1, 1,21, 0,22, 0.00,60.00,WinterDesignDay
12,591820912.478116
48,0.0
435,0.0
1631,530103536.6556764
1685,14209324.81278822
1709,10237368.648073579
1748,8392591.483616045
1825,0.0
2122,3971956.164714642
2,1, 1,21, 0,23, 0.00,60.00,WinterDesignDay
12,745616978.0995919
48,0.0
435,0.0
1631,681801454.4062482
1685,16949420.61286066
1709,16877420.61286066
1748,10490739.354520057
1825,0.0
2122,72000.0
2,1, 1,21, 0,24, 0.00,60.00,WinterDesignDay
12,597275863.9249188
48,0.0
435,0.0
1631,535558488.10247918
1685,16735135.142403128
1709,12764688.591648253
1748,8392591.483616043
1825,0.0
2122,3970446.5507548737
4,1, 1
14,16246831482.194359,8887464.056470588,21, 1,40,156947422.27349485,21, 6,30
1687,5705544732.996411,12000.0,21, 1,40,87749202.00611101,21, 8,20
2192,5848.80119805493,3.037471668096,21, 1,40,53.90134861311647,21, 6,30
2217,2.154525448634808,0.0010545320370974117,21, 1,40,0.018822588762410099,21, 6,30
2242,12.145680360912607,0.006640725862994823,21, 1,40,0.11727665632750765,21, 6,30
2267,10.378650814092055,0.005530347735936,21, 1,40,0.09790000287893415,21, 6,30
2292,0.13647744055603257,0.00007136128144534588,21, 1,40,0.0012655163107639977,21, 6,30
2317,30.415597620656265,0.016637335929712946,21, 1,40,0.2938069757832215,21, 6,30
2342,0.0,0.0,21, 1,10,0.0,21, 1,10
2367,0.303015305066817,0.00015459607994202355,21, 1,40,0.0027480866479219717,21, 6,30
2392,0.0,0.0,21, 1,10,0.0,21, 1,10
2417,0.0,0.0,21, 1,10,0.0,21, 1,10
2442,0.18044668455668123,0.00009059457873543527,21, 1,40,0.00161294109749872,21, 6,30
2467,0.00009224919819345663,5.011774181443765e-8,21, 1,40,8.856068980941185e-7,21, 6,30
2492,0.0004525522596034875,2.4689630748875298e-7,21, 1,40,0.00000436111310039189,21, 6,30
2517,7001.663009507966,3.8301024049347167,21, 1,40,67.6373705343273,21, 6,30
2542,0.0,0.0,21, 1,10,0.0,21, 1,10
2567,0.0,0.0,21, 1,10,0.0,21, 1,10
2839,1682.1717375487299,0.8757346014500815,21, 1,40,15.536700637264725,21, 6,30
1,CHICAGO ANN CLG .4% CONDNS WB=>MDB HVAC Sizing Pass 1,  41.98, -87.92,  -6.00, 201.00
2,1, 7,21, 0, 1, 0.00,60.00,SummerDesignDay
12,524529057.5700626
48,192989952.8442144
435,192989952.8442144
1631,0.0
1685,72000.0
1709,0.0
1748,8034221.964541872
1825,77190145.57826841
2122,72000.0
2,1, 7,21, 0, 2, 0.00,60.00,SummerDesignDay
12,558561589.7877882
48,192989952.8442144
435,192989952.8442144
1631,0.0
1685,72000.0
1709,0.0
1748,9659574.140082587
1825,109597325.6204531
2122,72000.0
2,1, 7,21, 0, 3, 0.00,60.00,SummerDesignDay
12,546532614.2664193
48,192989952.8442144
435,192989952.8442144
1631,0.0
1685,3970831.772137754
1709,0.0
1748,8050459.780316474
1825,99177464.45885043
2122,3970831.772137754
2,1, 7,21, 0, 4, 0.00,60.00,SummerDesignDay
12,555479096.0304993
48,192989952.8442144
435,192989952.8442144
1631,0.0
1685,72000.0
1709,0.0
1748,9008996.414636493
1825,107165409.58861052
2122,72000.0
2,1, 7,21, 0, 5, 0.00,60.00,SummerDesignDay
12,504566410.0909577
48,192989952.8442144
435,192989952.8442144
1631,0.0
1685,3970647.9475630235
1709,0.0
1748,7402594.711153604
1825,84506325.35255178
2122,3970647.9475630235
2,1, 7,21, 0, 6, 0.00,60.00,SummerDesignDay
12,510871162.38036647
48,192989952.8442144
435,192989952.8442144
1631,0.0
1685,72000.0
1709,0.0
1748,9946726.369572485
1825,114914145.98354166
2122,72000.0
2,1, 7,21, 0, 7, 0.00,60.00,SummerDesignDay
12,661699507.9678078
48,192989952.8442144
435,192989952.8442144
1631,0.0
1685,3970388.7236058234
1709,0.0
1748,25957700.469536164
1825,249731517.47101919
2122,3970388.7236058234
2,1, 7,21, 0, 8, 0.00,60.00,SummerDesignDay
12,663521504.185513
48,192989952.8442144
435,233448414.38267596
1631,0.0
1685,3972446.8002833838
1709,0.0
1748,26832471.343468734
1825,210220281.27633036
2122,3972446.8002833838
2,1, 7,21, 0, 9, 0.00,60.00,SummerDesignDay
12,742370096.9418297
48,192989952.8442144
435,272750919.8771814
1631,0.0
1685,3974425.150959064
1709,0.0
1748,31205019.48327329
1825,245393820.39833708
2122,3974425.150959064
2,1, 7,21, 0,10, 0.00,60.00,SummerDesignDay
12,725821298.5661805
48,192989952.8442144
435,242696062.73432429
1631,0.0
1685,7877771.417074017
1709,0.0
1748,30310597.103639865
1825,259794301.54517836
2122,7877771.417074017
2,1, 7,21, 0,11, 0.00,60.00,SummerDesignDay
12,735498449.6541485
48,192989952.8442144
435,235760326.47058804
1631,0.0
1685,3975138.7666828746
1709,0.0
1748,30261109.2028542
1825,276456676.7976683
2122,3975138.7666828746
2,1, 7,21, 0,12, 0.00,60.00,SummerDesignDay
12,758446270.5067766
48,192989952.8442144
435,242696062.73432429
1631,0.0
1685,7880065.320064668
1709,0.0
1748,30671357.245230624
1825,292058513.3441837
2122,7880065.320064668
2,1, 7,21, 0,13, 0.00,60.00,SummerDesignDay
12,796579315.4644539
48,192989952.8442144
435,260035403.3936649
1631,0.0
1685,11788320.94680292
1709,0.0
1748,32840745.29861188
1825,310682829.58913919
2122,11788320.94680292
2,1, 7,21, 0,14, 0.00,60.00,SummerDesignDay
12,800357376.9020665
48,192989952.8442144
435,248475842.95410455
1631,0.0
1685,7882426.160454368
1709,0.0
1748,34308479.03887782
1825,324552717.7260463
2122,7882426.160454368
2,1, 7,21, 0,15, 0.00,60.00,SummerDesignDay
12,794503626.7230556
48,192989952.8442144
435,235760326.47058804
1631,0.0
1685,3974340.3069115148
1709,0.0
1748,35182302.51684205
1825,330540660.5525875
2122,3974340.3069115148
2,1, 7,21, 0,16, 0.00,60.00,SummerDesignDay
12,792070028.0546889
48,192989952.8442144
435,235760326.47058804
1631,0.0
1685,7876391.068711309
1709,0.0
1748,35690609.47280691
1825,327598754.928256
2122,7876391.068711309
2,1, 7,21, 0,17, 0.00,60.00,SummerDesignDay
12,794379752.0640085
48,192989952.8442144
435,246163930.8661924
1631,0.0
1685,7879406.210693892
1709,0.0
1748,35926594.49271102
1825,319268889.52206709
2122,7879406.210693892
2,1, 7,21, 0,18, 0.00,60.00,SummerDesignDay
12,801885759.4467228
48,192989952.8442144
435,264659227.56948919
1631,0.0
1685,3973296.6494111346
1709,0.0
1748,36074314.17505495
1825,308131880.5191406
2122,3973296.6494111346
2,1, 7,21, 0,19, 0.00,60.00,SummerDesignDay
12,689010734.8941069
48,192989952.8442144
435,206861425.371687
1631,0.0
1685,3972543.9708239815
1709,0.0
1748,26784245.877039307
1825,262344726.46234269
2122,3972543.9708239815
2,1, 7,21, 0,20, 0.00,60.00,SummerDesignDay
12,683315772.0220314
48,192989952.8442144
435,197613777.0200386
1631,0.0
1685,3971764.0439076
1709,0.0
1748,20995614.86926875
1825,227274042.94968624
2122,3971764.0439076
2,1, 7,21, 0,21, 0.00,60.00,SummerDesignDay
12,677128714.0872583
48,192989952.8442144
435,197613777.0200386
1631,0.0
1685,72000.0
1709,0.0
1748,19701074.883310789
1825,213499125.00087104
2122,72000.0
2,1, 7,21, 0,22, 0.00,60.00,SummerDesignDay
12,659651698.900704
48,192989952.8442144
435,192989952.8442144
1631,0.0
1685,3971054.681913406
1709,0.0
1748,18740312.082553727
1825,201606696.7908979
2122,3971054.681913406
2,1, 7,21, 0,23, 0.00,60.00,SummerDesignDay
12,508211309.3578719
48,192989952.8442144
435,192989952.8442144
1631,0.0
1685,72000.0
1709,0.0
1748,6265120.504618449
1825,62641498.82600115
2122,72000.0
2,1, 7,21, 0,24, 0.00,60.00,SummerDesignDay
12,533183881.44095996
48,192989952.8442144
435,192989952.8442144
1631,0.0
1685,3970611.5670503408
1709,0.0
1748,8547108.590237059
1825,85332082.82347049
2122,3970611.5670503408
4,1, 7
14,16018175027.306275,64335048.337875399,21, 5,50,135012720.7137869,21,18,10
1687,99283871.50505108,12000.0,21, 1,10,3917721.497928315,21,13,40
2192,5478.583096535967,21.983911217052026,21, 5,50,46.21037804683452,21,14,60
2217,1.9037169847115754,0.007630615532872021,21, 5,50,0.016124534521847753,21,14,60
2242,11.968885621307044,0.048071160838060487,21, 5,50,0.10088151763734155,21,18,10
2267,9.971204629112155,0.04002983467582607,21, 5,50,0.08400548242811819,21,18,10
2292,0.12869915002301014,0.0005164944880564637,21, 5,50,0.001085037528130759,21,14,60
2317,29.98605025919491,0.12043521370450275,21, 5,50,0.25274381639220908,21,18,10
2342,0.0,0.0,21, 1,10,0.0,21, 1,10
2367,0.27891249282355948,0.0011188295705956533,21, 5,50,0.0023554424681171855,21,14,60
2392,0.0,0.0,21, 1,10,0.0,21, 1,10
2417,0.0,0.0,21, 1,10,0.0,21, 1,10
2442,0.16348433443287908,0.0006556054625629502,21, 5,50,0.001382199755998008,21,14,60
2467,0.00009033750948871719,3.627866695772794e-7,21, 5,50,7.613380641050442e-7,21,18,10
2492,0.00044500604972319904,0.0000017872301988261787,21, 5,50,0.0000037506559374289996,21,18,10
2517,6903.122229797792,27.725549357478096,21, 5,50,58.18448806284245,21,18,10
2542,0.0,0.0,21, 1,10,0.0,21, 1,10
2567,0.0,0.0,21, 1,10,0.0,21, 1,10
2839,1579.4763612858688,6.33824371331522,21, 5,50,13.320237904918019,21,14,60
1,CHICAGO ANN HTG 99.6% CONDNS DB,  41.98, -87.92,  -6.00, 201.00
2,1, 1,21, 0, 1, 0.00,60.00,WinterDesignDay
12,751104810.9457358
48,0.0
435,0.0
1631,687289287.2523922
1685,19230751.07047034
1709,19158751.07047034
1748,10490739.354520057
1825,0.0
2122,72000.0
2,1, 1,21, 0, 2, 0.00,60.00,WinterDesignDay
12,601764258.9103335
48,0.0
435,0.0
1631,540046883.0878939
1685,17563287.540610538
1709,13592070.607227918
1748,8392591.483616045
1825,0.0
2122,3971216.9333826198
2,1, 1,21, 0, 3, 0.00,60.00,WinterDesignDay
12,755883376.4654803
48,0.0
435,0.0
1631,692067852.7721367
1685,20002691.821801515
1709,19930691.821801515
1748,10490739.354520057
1825,0.0
2122,72000.0
2,1, 1,21, 0, 4, 0.00,60.00,WinterDesignDay
12,605253445.3105317
48,0.0
435,0.0
1631,543536069.4880921
1685,18035558.359847569
1709,14064405.114733566
1748,8392591.483616045
1825,0.0
2122,3971153.245114001
2,1, 1,21, 0, 5, 0.00,60.00,WinterDesignDay
12,759655273.7811989
48,0.0
435,0.0
1631,695839750.0878553
1685,20466149.517977816
1709,20394149.517977816
1748,10490739.354520057
1825,0.0
2122,72000.0
2,1, 1,21, 0, 6, 0.00,60.00,WinterDesignDay
12,608009434.816699
48,0.0
435,0.0
1631,546292058.9942594
1685,18327351.0190809
1709,14355977.796682479
1748,8392591.483616043
1825,0.0
2122,3971373.222398421
2,1, 1,21, 0, 7, 0.00,60.00,WinterDesignDay
12,802163528.1188086
48,0.0
435,0.0
1631,736249856.554561
1685,4174757.3676490865
1709,4102757.3676490865
1748,12588887.225424068
1825,0.0
2122,72000.0
2,1, 1,21, 0, 8, 0.00,60.00,WinterDesignDay
12,708988829.8139701
48,0.0
435,18495296.7032967
1631,668991861.5464257
1685,506049039.60566446
1709,502077028.61571726
1748,12588887.225424068
1825,0.0
2122,3972010.9899471697
2,1, 1,21, 0, 9, 0.00,60.00,WinterDesignDay
12,686025881.5988833
48,0.0
435,16183384.61538461
1631,657223225.4192511
1685,503282848.5488806
1709,499310132.48950526
1748,12588887.225424068
1825,0.0
2122,3972716.05937533
2,1, 1,21, 0,10, 0.00,60.00,WinterDesignDay
12,681865856.3384454
48,0.0
435,24275076.923076918
1631,644971507.8511208
1685,505724580.843634
1709,497848672.0830864
1748,12588887.225424068
1825,0.0
2122,7875908.76054758
2,1, 1,21, 0,11, 0.00,60.00,WinterDesignDay
12,675161150.1209351
48,0.0
435,20807208.791208786
1631,641734669.7654787
1685,500890817.7862711
1709,496917243.19283989
1748,12588887.225424068
1825,0.0
2122,3973574.5934312117
2,1, 1,21, 0,12, 0.00,60.00,WinterDesignDay
12,674080682.3454044
48,0.0
435,28898901.098901094
1631,632562509.6822558
1685,500229238.27519848
1709,496254928.9232283
1748,12588887.225424068
1825,0.0
2122,3974309.351970106
2,1, 1,21, 0,13, 0.00,60.00,WinterDesignDay
12,668522809.7266675
48,0.0
435,24275076.923076918
1631,631628461.2393432
1685,503619244.8378544
1709,495743734.89314118
1748,12588887.225424068
1825,0.0
2122,7875509.9447133359
2,1, 1,21, 0,14, 0.00,60.00,WinterDesignDay
12,662229501.8092916
48,0.0
435,15027428.571428566
1631,634582801.6736155
1685,499324884.43371596
1709,495351323.4584689
1748,12588887.225424068
1825,0.0
2122,3973560.975247088
2,1, 1,21, 0,15, 0.00,60.00,WinterDesignDay
12,658085617.0660136
48,0.0
435,9247648.35164835
1631,636218697.1501178
1685,499012692.9909355
1709,495039883.12441727
1748,12588887.225424068
1825,0.0
2122,3972809.866518226
2,1, 1,21, 0,16, 0.00,60.00,WinterDesignDay
12,654701514.3802081
48,0.0
435,4623824.175824175
1631,637458418.6401364
1685,498759616.67910757
1709,494787163.86218616
1748,12588887.225424068
1825,0.0
2122,3972452.8169213745
2,1, 1,21, 0,17, 0.00,60.00,WinterDesignDay
12,671411873.8927577
48,0.0
435,5779780.219780219
1631,635248022.1087298
1685,498541842.3283217
1709,494569432.4881215
1748,12588887.225424068
1825,0.0
2122,3972409.840200131
2,1, 1,21, 0,18, 0.00,60.00,WinterDesignDay
12,705925674.4056999
48,0.0
435,6935736.263736261
1631,633076266.5777161
1685,494444256.44159808
1709,494372256.44159808
1748,12588887.225424068
1825,0.0
2122,72000.0
2,1, 1,21, 0,19, 0.00,60.00,WinterDesignDay
12,665507309.3414207
48,0.0
435,0.0
1631,602111415.2222579
1685,6795550.727263528
1709,2823920.1925443608
1748,10071109.780339254
1825,0.0
2122,3971630.5347191675
2,1, 1,21, 0,20, 0.00,60.00,WinterDesignDay
12,579019725.78352
48,0.0
435,0.0
1631,517302349.96108046
1685,9866292.615172904
1709,5895155.632321567
1748,8392591.483616045
1825,0.0
2122,3971136.9828513369
2,1, 1,21, 0,21, 0.00,60.00,WinterDesignDay
12,736757172.7197282
48,0.0
435,0.0
1631,672941649.0263846
1685,13309399.617303675
1709,13237399.617303675
1748,10490739.354520057
1825,0.0
2122,72000.0
2,1, 1,21, 0,22, 0.00,60.00,WinterDesignDay
12,591820912.478116
48,0.0
435,0.0
1631,530103536.6556764
1685,14209324.81278822
1709,10237368.648073579
1748,8392591.483616045
1825,0.0
2122,3971956.164714642
2,1, 1,21, 0,23, 0.00,60.00,WinterDesignDay
12,745616978.0995919
48,0.0
435,0.0
1631,681801454.4062482
1685,16949420.61286066
1709,16877420.61286066
1748,10490739.354520057
1825,0.0
2122,72000.0
2,1, 1,21, 0,24, 0.00,60.00,WinterDesignDay
12,597275863.9249188
48,0.0
435,0.0
1631,535558488.10247918
1685,16735135.142403128
1709,12764688.591648253
1748,8392591.483616043
1825,0.0
2122,3970446.5507548737
4,1, 1
14,16246831482.194359,8887464.056470588,21, 1,40,156947422.27349485,21, 6,30
1687,5705544732.996411,12000.0,21, 1,40,87749202.00611101,21, 8,20
2192,5848.80119805493,3.037471668096,21, 1,40,53.90134861311647,21, 6,30
2217,2.154525448634808,0.0010545320370974117,21, 1,40,0.018822588762410099,21, 6,30
2242,12.145680360912607,0.006640725862994823,21, 1,40,0.11727665632750765,21, 6,30
2267,10.378650814092055,0.005530347735936,21, 1,40,0.09790000287893415,21, 6,30
2292,0.13647744055603257,0.00007136128144534588,21, 1,40,0.0012655163107639977,21, 6,30
2317,30.415597620656265,0.016637335929712946,21, 1,40,0.2938069757832215,21, 6,30
2342,0.0,0.0,21, 1,10,0.0,21, 1,10
2367,0.303015305066817,0.00015459607994202355,21, 1,40,0.0027480866479219717,21, 6,30
2392,0.0,0.0,21, 1,10,0.0,21, 1,10
2417,0.0,0.0,21, 1,10,0.0,21, 1,10
2442,0.18044668455668123,0.00009059457873543527,21, 1,40,0.00161294109749872,21, 6,30
2467,0.00009224919819345663,5.011774181443765e-8,21, 1,40,8.856068980941185e-7,21, 6,30
2492,0.0004525522596034875,2.4689630748875298e-7,21, 1,40,0.00000436111310039189,21, 6,30
2517,7001.663009507966,3.8301024049347167,21, 1,40,67.6373705343273,21, 6,30
2542,0.0,0.0,21, 1,10,0.0,21, 1,10
2567,0.0,0.0,21, 1,10,0.0,21, 1,10
2839,1682.1717375487299,0.8757346014500815,21, 1,40,15.536700637264725,21, 6,30
1,CHICAGO ANN CLG .4% CONDNS WB=>MDB,  41.98, -87.92,  -6.00, 201.00
2,1, 7,21, 0, 1, 0.00,60.00,SummerDesignDay
12,524529057.5700085
48,192989952.8442144
435,192989952.8442144
1631,0.0
1685,72000.0
1709,0.0
1748,8034221.964532723
1825,77190145.5782235
2122,72000.0
2,1, 7,21, 0, 2, 0.00,60.00,SummerDesignDay
12,558561589.7878876
48,192989952.8442144
435,192989952.8442144
1631,0.0
1685,72000.0
1709,0.0
1748,9659574.14008021
1825,109597325.62055493
2122,72000.0
2,1, 7,21, 0, 3, 0.00,60.00,SummerDesignDay
12,546532614.2656667
48,192989952.8442144
435,192989952.8442144
1631,0.0
1685,3970831.772137754
1709,0.0
1748,8050459.780318232
1825,99177464.45809612
2122,3970831.772137754
2,1, 7,21, 0, 4, 0.00,60.00,SummerDesignDay
12,555479096.0305142
48,192989952.8442144
435,192989952.8442144
1631,0.0
1685,72000.0
1709,0.0
1748,9008996.414638469
1825,107165409.58862342
2122,72000.0
2,1, 7,21, 0, 5, 0.00,60.00,SummerDesignDay
12,504566410.0911452
48,192989952.8442144
435,192989952.8442144
1631,0.0
1685,3970647.9475630235
1709,0.0
1748,7402594.711215423
1825,84506325.35267748
2122,3970647.9475630235
2,1, 7,21, 0, 6, 0.00,60.00,SummerDesignDay
12,510871162.385814
48,192989952.8442144
435,192989952.8442144
1631,0.0
1685,72000.0
1709,0.0
1748,9946726.369581204
1825,114914145.98898049
2122,72000.0
2,1, 7,21, 0, 7, 0.00,60.00,SummerDesignDay
12,661699507.9689226
48,192989952.8442144
435,192989952.8442144
1631,0.0
1685,3970388.7236058234
1709,0.0
1748,25957700.469794483
1825,249731517.47187565
2122,3970388.7236058234
2,1, 7,21, 0, 8, 0.00,60.00,SummerDesignDay
12,663521504.1861011
48,192989952.8442144
435,233448414.38267596
1631,0.0
1685,3972446.8002833838
1709,0.0
1748,26832471.34363384
1825,210220281.2767533
2122,3972446.8002833838
2,1, 7,21, 0, 9, 0.00,60.00,SummerDesignDay
12,742370096.9424653
48,192989952.8442144
435,272750919.8771814
1631,0.0
1685,3974425.150959064
1709,0.0
1748,31205019.483466526
1825,245393820.3987794
2122,3974425.150959064
2,1, 7,21, 0,10, 0.00,60.00,SummerDesignDay
12,725821298.5670629
48,192989952.8442144
435,242696062.73432429
1631,0.0
1685,7877771.417074017
1709,0.0
1748,30310597.103895908
1825,259794301.54580469
2122,7877771.417074017
2,1, 7,21, 0,11, 0.00,60.00,SummerDesignDay
12,735498449.6550264
48,192989952.8442144
435,235760326.47058804
1631,0.0
1685,3975138.7666828746
1709,0.0
1748,30261109.20310612
1825,276456676.79829439
2122,3975138.7666828746
2,1, 7,21, 0,12, 0.00,60.00,SummerDesignDay
12,758446270.5076503
48,192989952.8442144
435,242696062.73432429
1631,0.0
1685,7880065.320064668
1709,0.0
1748,30671357.24544476
1825,292058513.34484329
2122,7880065.320064668
2,1, 7,21, 0,13, 0.00,60.00,SummerDesignDay
12,796579315.4650661
48,192989952.8442144
435,260035403.3936649
1631,0.0
1685,11788320.94680292
1709,0.0
1748,32840745.29877369
1825,310682829.5895895
2122,11788320.94680292
2,1, 7,21, 0,14, 0.00,60.00,SummerDesignDay
12,800357376.9023428
48,192989952.8442144
435,248475842.95410455
1631,0.0
1685,7882426.160454368
1709,0.0
1748,34308479.038949947
1825,324552717.7262504
2122,7882426.160454368
2,1, 7,21, 0,15, 0.00,60.00,SummerDesignDay
12,794503626.7232001
48,192989952.8442144
435,235760326.47058804
1631,0.0
1685,3974340.3069115148
1709,0.0
1748,35182302.516874577
1825,330540660.55269959
2122,3974340.3069115148
2,1, 7,21, 0,16, 0.00,60.00,SummerDesignDay
12,792070028.0546913
48,192989952.8442144
435,235760326.47058804
1631,0.0
1685,7876391.068711309
1709,0.0
1748,35690609.47281633
1825,327598754.928249
2122,7876391.068711309
2,1, 7,21, 0,17, 0.00,60.00,SummerDesignDay
12,794379752.063962
48,192989952.8442144
435,246163930.8661924
1631,0.0
1685,7879406.210693892
1709,0.0
1748,35926594.492706548
1825,319268889.522025
2122,7879406.210693892
2,1, 7,21, 0,18, 0.00,60.00,SummerDesignDay
12,801885759.446818
48,192989952.8442144
435,264659227.56948919
1631,0.0
1685,3973296.6494111346
1709,0.0
1748,36074314.17507904
1825,308131880.5192117
2122,3973296.6494111346
2,1, 7,21, 0,19, 0.00,60.00,SummerDesignDay
12,689010734.894258
48,192989952.8442144
435,206861425.371687
1631,0.0
1685,3972543.9708239815
1709,0.0
1748,26784245.877054499
1825,262344726.46247874
2122,3972543.9708239815
2,1, 7,21, 0,20, 0.00,60.00,SummerDesignDay
12,683315772.022628
48,192989952.8442144
435,197613777.0200386
1631,0.0
1685,3971764.0439076
1709,0.0
1748,20995614.869411075
1825,227274042.95014037
2122,3971764.0439076
2,1, 7,21, 0,21, 0.00,60.00,SummerDesignDay
12,677128714.0872824
48,192989952.8442144
435,197613777.0200386
1631,0.0
1685,72000.0
1709,0.0
1748,19701074.883322866
1825,213499125.00088305
2122,72000.0
2,1, 7,21, 0,22, 0.00,60.00,SummerDesignDay
12,659651698.9004761
48,192989952.8442144
435,192989952.8442144
1631,0.0
1685,3971054.681913406
1709,0.0
1748,18740312.082516627
1825,201606696.79070703
2122,3971054.681913406
2,1, 7,21, 0,23, 0.00,60.00,SummerDesignDay
12,508211309.3578141
48,192989952.8442144
435,192989952.8442144
1631,0.0
1685,72000.0
1709,0.0
1748,6265120.504607307
1825,62641498.82595432
2122,72000.0
2,1, 7,21, 0,24, 0.00,60.00,SummerDesignDay
12,533183881.4409133
48,192989952.8442144
435,192989952.8442144
1631,0.0
1685,3970611.5670503408
1709,0.0
1748,8547108.590230396
1825,85332082.82343054
2122,3970611.5670503408
4,1, 7
14,16018175027.317719,64335048.337875399,21, 5,50,135012720.71380399,21,18,10
1687,99283871.50505108,12000.0,21, 1,10,3917721.497928315,21,13,40
2192,5478.583096539875,21.983911217052026,21, 5,50,46.21037804682669,21,14,60
2217,1.903716984712932,0.007630615532872021,21, 5,50,0.016124534521845037,21,14,60
2242,11.968885621315593,0.048071160838060487,21, 5,50,0.10088151763735429,21,18,10
2267,9.97120462911927,0.04002983467582607,21, 5,50,0.0840054824281288,21,18,10
2292,0.12869915002310199,0.0005164944880564637,21, 5,50,0.0010850375281305752,21,14,60
2317,29.986050259216339,0.12043521370450275,21, 5,50,0.252743816392241,21,18,10
2342,0.0,0.0,21, 1,10,0.0,21, 1,10
2367,0.2789124928237583,0.0011188295705956533,21, 5,50,0.002355442468116787,21,14,60
2392,0.0,0.0,21, 1,10,0.0,21, 1,10
2417,0.0,0.0,21, 1,10,0.0,21, 1,10
2442,0.16348433443299566,0.0006556054625629502,21, 5,50,0.0013821997559977746,21,14,60
2467,0.00009033750948878161,3.627866695772794e-7,21, 5,50,7.613380641051403e-7,21,18,10
2492,0.00044500604972351666,0.0000017872301988261787,21, 5,50,0.0000037506559374294735,21,18,10
2517,6903.122229802721,27.725549357478096,21, 5,50,58.1844880628498,21,18,10
2542,0.0,0.0,21, 1,10,0.0,21, 1,10
2567,0.0,0.0,21, 1,10,0.0,21, 1,10
2839,1579.4763612869954,6.33824371331522,21, 5,50,13.32023790491576,21,14,60
1,ANNUAL,  41.98, -87.92,  -6.00, 201.00
2,1, 1, 1, 0, 1, 0.00,60.00,Holiday
12,312965214.2087213
48,9649497.642210719
435,57896985.85326433
1631,182286476.0588926
1685,13589796.124173655
1709,13517796.124173655
1748,9807470.315530189
1825,0.0
2122,72000.0
2,1, 1, 1, 0, 2, 0.00,60.00,Holiday
12,306631275.84470668
48,9649497.642210719
435,57896985.85326433
1631,177367416.52679206
1685,17789617.146147379
1709,17717617.146147379
1748,8392591.483616045
1825,0.0
2122,72000.0
2,1, 1, 1, 0, 3, 0.00,60.00,Holiday
12,367147516.1577441
48,9649497.642210719
435,57896985.85326433
1631,235785508.96892555
1685,29281346.408368056
1709,25310614.609322408
1748,10490739.354520057
1825,0.0
2122,3970731.799045646
2,1, 1, 1, 0, 4, 0.00,60.00,Holiday
12,314026354.73806586
48,9649497.642210719
435,57896985.85326433
1631,184762495.42015136
1685,20073989.01066672
1709,20001989.01066672
1748,8392591.483616045
1825,0.0
2122,72000.0
2,1, 1, 1, 0, 5, 0.00,60.00,Holiday
12,376611664.5781919
48,9649497.642210719
435,57896985.85326433
1631,245249657.38937334
1685,31896594.20328231
1709,27925599.37614991
1748,10490739.354520057
1825,0.0
2122,3970994.8271323966
2,1, 1, 1, 0, 6, 0.00,60.00,Holiday
12,319934190.5147841
48,9649497.642210719
435,57896985.85326433
1631,190670331.19686956
1685,21958933.341284589
1709,21886933.341284589
1748,8392591.483616045
1825,0.0
2122,72000.0
2,1, 1, 1, 0, 7, 0.00,60.00,Holiday