Program Version,EnergyPlus, Version 9.4.0-998c4b761e, YMD=2024.08.06 05:44
1,5,Environment Title[],Latitude[deg],Longitude[deg],Time Zone[],Elevation[m]
2,8,Day of Simulation[],Month[],Day of Month[],DST Indicator[1=yes 0=no],Hour[],StartMinute[],EndMinute[],DayType
3,5,Cumulative Day of Simulation[],Month[],Day of Month[],DST Indicator[1=yes 0=no],DayType  ! When Daily Report Variables Requested
4,2,Cumulative Days of Simulation[],Month[]  ! When Monthly Report Variables Requested
5,1,Cumulative Days of Simulation[] ! When Run Period Report Variables Requested
6,1,Calendar Year of Simulation[] ! When Annual Report Variables Requested
96,1,CORE_MID1,Zone People Occupant Count [] !Hourly
1960,1,CORE_MID1,Zone Mean Radiant Temperature [C] !Hourly
1963,1,CORE_MID1,Zone Mean Air Temperature [C] !Hourly
2329,1,CORE_MID1,Zone Air Relative Humidity [%] !Hourly
4134,1,VAV_MID_FAN,Fan Electricity Rate [W] !Hourly
4224,1,VAV_BOT_COIL,Cooling Coil Total Cooling Rate [W] !Hourly
4225,1,VAV_BOT_COIL,Cooling Coil Sensible Cooling Rate [W] !Hourly
4230,1,VAV_MID_COIL,Cooling Coil Total Cooling Rate [W] !Hourly
4231,1,VAV_MID_COIL,Cooling Coil Sensible Cooling Rate [W] !Hourly
4236,1,VAV_TOP_COIL,Cooling Coil Total Cooling Rate [W] !Hourly
4237,1,VAV_TOP_COIL,Cooling Coil Sensible Cooling Rate [W] !Hourly
4317,1,SGP_CHILLER_1,Chiller Electricity Rate [W] !Hourly
4355,1,SGP_CHILLER_1,Chiller Evaporator Cooling Rate [W] !Hourly
4407,1,SGP_CHILLER_2,Chiller Electricity Rate [W] !Hourly
4409,1,SGP_CHILLER_2,Chiller Evaporator Cooling Rate [W] !Hourly
4417,1,SGP_COOLTOWER_1,Cooling Tower Fan Electricity Rate [W] !Hourly
4545,1,SGP_COOLTOWER_2,Cooling Tower Fan Electricity Rate [W] !Hourly
4574,1,CHW_PUMP,Pump Electricity Rate [W] !Hourly
4581,1,CNDW_PUMP,Pump Electricity Rate [W] !Hourly
4587,1,CORE_MID1_VAV_BOX_OUTLET_NODE,System Node Temperature [C] !Hourly
4588,1,CORE_MID1_VAV_BOX_OUTLET_NODE,System Node Mass Flow Rate [kg/s] !Hourly
4589,1,VAV_MID_FAN_OUTLET,System Node Temperature [C] !Hourly
4590,1,VAV_MID_FAN_OUTLET,System Node Mass Flow Rate [kg/s] !Hourly
End of Data Dictionary
1,RUNPERIOD 1,   1.37, 103.98,   8.00,  16.00
2,1,10, 1, 0, 1, 0.00,60.00,Tuesday
96,0.0
1960,27.401847485263727
1963,27.614740079208404
2329,42.690979691788097
4134,0.0
4224,0.0
4225,0.0
4230,0.0
4231,0.0
4236,0.0
4237,0.0
4317,0.0
4355,0.0
4407,0.0
4409,0.0
4417,0.0
4545,0.0
4574,0.0
4581,0.0
4587,27.26367792304606
4588,0.0
4589,27.26367792304606
4590,0.0
2,1,10, 1, 0, 2, 0.00,60.00,Tuesday
96,0.0
1960,27.41781267200625
1963,27.630499155596504
2329,42.60943349967643
4134,0.0
4224,0.0
4225,0.0
4230,0.0
4231,0.0
4236,0.0
4237,0.0
4317,0.0
4355,0.0
4407,0.0
4409,0.0
4417,0.0
4545,0.0
4574,0.0
4581,0.0
4587,27.267029156422404
4588,0.0
4589,27.267029156422404
4590,0.0
2,1,10, 1, 0, 3, 0.00,60.00,Tuesday
96,0.0
1960,27.432353804216786
1963,27.640285069241565
2329,42.58507506810523
4134,0.0
4224,0.0
4225,0.0
4230,0.0
4231,0.0
4236,0.0
4237,0.0
4317,0.0
4355,0.0
4407,0.0
4409,0.0
4417,0.0
4545,0.0
4574,0.0
4581,0.0
4587,27.270411572011999
4588,0.0
4589,27.270411572011999
4590,0.0
2,1,10, 1, 0, 4, 0.00,60.00,Tuesday
96,0.0
1960,27.445523875293917
1963,27.652236946651177
2329,42.55533977314243
4134,0.0
4224,0.0
4225,0.0
4230,0.0
4231,0.0
4236,0.0
4237,0.0
4317,0.0
4355,0.0
4407,0.0
4409,0.0
4417,0.0
4545,0.0
4574,0.0
4581,0.0
4587,27.275595323869216
4588,0.0
4589,27.275595323869216
4590,0.0
2,1,10, 1, 0, 5, 0.00,60.00,Tuesday
96,0.0
1960,27.460132410734194
1963,27.666756172722864
2329,42.519254279829507
4134,0.0
4224,0.0
4225,0.0
4230,0.0
4231,0.0
4236,0.0
4237,0.0
4317,0.0
4355,0.0
4407,0.0
4409,0.0
4417,0.0
4545,0.0
4574,0.0
4581,0.0
4587,27.28222523673702
4588,0.0
4589,27.28222523673702
4590,0.0
2,1,10, 1, 0, 6, 0.00,60.00,Tuesday
96,0.0
1960,27.473179488434555
1963,27.680408707037669
2329,42.48535435714958
4134,0.0
4224,0.0
4225,0.0
4230,0.0
4231,0.0
4236,0.0
4237,0.0
4317,0.0
4355,0.0
4407,0.0
4409,0.0
4417,0.0
4545,0.0
4574,0.0
4581,0.0
4587,27.290616718837407
4588,0.0
4589,27.290616718837407
4590,0.0
2,1,10, 1, 0, 7, 0.00,60.00,Tuesday
96,0.0
1960,27.509211693271604
1963,27.769481357127327
2329,42.30687188393077
4134,0.0
4224,0.0
4225,0.0
4230,0.0
4231,0.0
4236,0.0
4237,0.0
4317,0.0
4355,0.0
4407,0.0
4409,0.0
4417,0.0
4545,0.0
4574,0.0
4581,0.0
4587,27.29946816540099
4588,0.0
4589,27.29946816540099
4590,0.0
2,1,10, 1, 0, 8, 0.00,60.00,Tuesday
96,7.999153143526115
1960,27.788704837720606
1963,25.925002841636198
2329,48.38983623974224
4134,27612.989979574566
4224,72614.17484127399
4225,35711.60909512162
4230,954331.6015261574
4231,415204.1751504543
4236,66468.02803486973
4237,30003.129370176786
4317,169920.2837226799
4355,1045158.9290176452
4407,15645.31991684918
4409,95526.18436753174
4417,11058.739491921378
4545,1042.072393449633
4574,5060.1068016536569
4581,19124.611188066487
4587,13.899959492387089
4588,2.523370149937566
4589,13.899991946064205
4590,26.21669680951042
2,1,10, 1, 0, 9, 0.00,60.00,Tuesday
96,15.198390972699619
1960,27.61002460860476
1963,25.99333911697886
2329,48.15181984631768
4134,40369.5532091459
4224,120885.89016410997
4225,69760.94740483654
4230,1605311.9485577406
4231,865533.8844485746
4236,112780.09709886508
4237,62596.48268998678
4317,151898.31844660373
4355,932197.2839278702
4407,151898.31844660373
4409,932197.2839278702
4417,9805.17393440207
4545,9805.17393440207
4574,15133.68700670288
4581,34424.300138519684
4587,13.47470651412744
4588,5.831944960980762
4589,13.474643242229467
4590,58.45140692978109
2,1,10, 1, 0,10, 0.00,60.00,Tuesday
96,15.198390972699619
1960,27.653431986721846
1963,25.997010700227628
2329,47.93672173727977
4134,49206.22335354339
4224,117867.0057863923
4225,73545.24852319663
4230,1623123.05118931
4231,948183.1475015939
4236,112345.82706806643
4237,67647.97053353898
4317,151803.87064315074
4355,932003.4006125608
4407,151803.87064315074
4409,932003.4006125608
4417,10103.686316999607
4545,10103.686316999607
4574,15741.53389662693
4581,34424.300138519684
4587,13.553495148764088
4588,5.980640632274012
4589,13.5534632363229
4590,63.91849147454646
2,1,10, 1, 0,11, 0.00,60.00,Tuesday
96,15.198390972699619
1960,27.682209207028543
1963,25.997499917325024
2329,47.84155935523023
4134,55604.05734325409
4224,116092.76790602866
4225,76817.22174789882
4230,1610188.568337755
4231,1007217.2397979631
4236,110565.07356574072
4237,70921.50853616969
4317,150438.02527531493
4355,923247.9939282553
4407,150438.02527531493
4409,923247.9939282553
4417,10430.745637702988
4545,10430.745637702988
4574,15289.968538611778
4581,34424.300138519684
4587,13.608418090626879
4588,6.009203094878671
4589,13.60837416974864
4590,67.33090418241693
2,1,10, 1, 0,12, 0.00,60.00,Tuesday
96,15.198390972699619
1960,27.689215871616235
1963,25.997119879907275
2329,47.67970174146254
4134,57825.19757167591
4224,112404.71826493075
4225,77402.04950639949
4230,1558027.4084394314
4231,1024743.1174640686
4236,106929.81238842927
4237,71751.2904478758
4317,145814.27669741558
4355,892973.2672828883
4407,145814.27669741558
4409,892973.2672828883
4417,10026.963138873445
4545,10026.963138873445
4574,13905.687724178686
4581,34424.300138519684
4587,13.627122959489873
4588,6.036798985682516
4589,13.62707364479466
4590,68.43980245021032
2,1,10, 1, 0,13, 0.00,60.00,Tuesday
96,7.999153143526115
1960,27.562879235804325
1963,25.99769444177531
2329,46.93048191872842
4134,38024.806724564536
4224,100481.64044417751
4225,66794.30407817519
4230,1399518.8618975422
4231,876862.9555829289
4236,95518.0424334211
4237,61346.68111532909
4317,132074.92408200186
4355,800724.9162518374
4407,132074.92408200186
4409,800724.9162518374
4417,9505.957067832238
4545,9505.957067832238
4574,11026.301936907046
4581,34424.300138519684
4587,13.453590916334019
4588,4.535493516403431
4589,13.453574898675078
4590,56.94763377517948
2,1,10, 1, 0,14, 0.00,60.00,Tuesday
96,15.198390972699619
1960,27.683675433782175
1963,25.99751423200972
2329,47.057789302815617
4134,60321.86914657326
4224,112227.27259851177
4225,78496.05311609678
4230,1563505.2501056616
4231,1051155.0773032937
4236,107135.34464572797
4237,73255.81977886813
4317,146312.74690194615
4355,896259.0426541575
4407,146312.74690194615
4409,896259.0426541575
4417,10047.162688647993
4545,10047.162688647993
4574,13841.225838045923
4581,34424.300138519684
4587,13.647915977008403
4588,6.040475749203211
4589,13.647860325116805
4590,69.64598045385562
2,1,10, 1, 0,15, 0.00,60.00,Tuesday
96,15.198390972699619
1960,27.688157869828655
1963,25.99738445939619
2329,47.34555630245546
4134,61188.502532433566
4224,111261.33528737052
4225,78402.40786036174
4230,1553795.1344644163
4231,1052054.1782605588
4236,106250.56123432581
4237,73125.35460646569
4317,145387.30260187033
4355,890155.3816834949
4407,145387.30260187033
4409,890155.3816834949
4417,9887.105753214437
4545,9887.105753214437
4574,13638.168424830767
4581,34424.300138519684
4587,13.655078943885667
4588,6.045729882869164
4589,13.655021020489335
4590,70.0553109295081
2,1,10, 1, 0,16, 0.00,60.00,Tuesday
96,15.198390972699619
1960,27.689543461921038
1963,25.997194931219818
2329,47.455529805876967
4134,61507.79158287128
4224,110703.81449934481
4225,78111.1352072299
4230,1546847.9509981792
4231,1050217.453472045
4236,105745.99665510969
4237,72933.76750973979
4317,144776.40133545377
4355,886118.191101564
4407,144776.40133545377
4409,886118.191101564
4417,9606.050102380566
4545,9606.050102380566
4574,13503.901639679863
4581,34424.300138519684
4587,13.657710979020035
4588,6.051153066985161
4589,13.657652219615408
4590,70.20495137613635
2,1,10, 1, 0,17, 0.00,60.00,Tuesday
96,15.198390972699619
1960,27.6682145173435
1963,25.997143764790079
2329,47.4499425425303
4134,55670.94262061253
4224,107992.61399838072
4225,75043.29419682002
4230,1510347.2901663595
4231,1009442.6920039113
4236,103441.03084655699
4237,70270.7478970498
4317,141615.7839999661
4355,865128.5303304588
4407,141615.7839999661
4409,865128.5303304588
4417,9600.453507856864
4545,9600.453507856864
4574,12912.358033511464
4581,34424.300138519684
4587,13.609017116148529
4588,5.98163098487929
4589,13.608972997656503
4590,67.36484454531724
2,1,10, 1, 0,18, 0.00,60.00,Tuesday
96,7.999153143526115
1960,27.320248437935999
1963,25.99858653290247
2329,47.56304531241187
4134,25395.77132932241
4224,81540.22373349627
4225,50413.42660094045
4230,1158923.3073591337
4231,654384.8205215219
4236,78568.01485486567
4237,46132.24811905829
4317,217140.99380802748
4355,1320717.2090763287
4407,0.0
4409,0.0
4417,12816.284920369137
4545,0.0
4574,7269.084804507152
4581,17212.150069259842
4587,13.397641148991257
4588,3.278785946800788
4589,13.397738816969789
4590,41.58256573645021
2,1,10, 1, 0,19, 0.00,60.00,Tuesday
96,0.7999153143526115
1960,27.054819724107174
1963,25.999503522093876
2329,46.8049485371112
4134,25395.77132932241
4224,66173.55366680978
4225,34014.93882178971
4230,1064056.285346814
4231,427775.0262492593
4236,68128.56378731497
4237,30221.120253365953
4317,194849.950877799
4355,1196012.9894930255
4407,0.0
4409,0.0
4417,12091.822021261727
4545,0.0
4574,5266.234731868788
4581,17212.150069259842
4587,13.80965722208451
4588,1.7462911379691196
4589,13.809901541052764
4590,24.606638862214785
2,1,10, 1, 0,20, 0.00,60.00,Tuesday
96,0.0
1960,26.937479800598895
1963,26.921940808526555
2329,44.379209417743428
4134,0.0
4224,0.0
4225,0.0
4230,0.0
4231,0.0
4236,0.0
4237,0.0
4317,0.0
4355,0.0
4407,0.0
4409,0.0
4417,0.0
4545,0.0
4574,0.0
4581,0.0
4587,26.939801966462125
4588,0.0
4589,26.939801966462125
4590,0.0
2,1,10, 1, 0,21, 0.00,60.00,Tuesday
96,0.0
1960,27.2483890326504
1963,27.31395001566933
2329,43.448358699101948
4134,0.0
4224,0.0
4225,0.0
4230,0.0
4231,0.0
4236,0.0
4237,0.0
4317,0.0
4355,0.0
4407,0.0
4409,0.0
4417,0.0
4545,0.0
4574,0.0
4581,0.0
4587,27.107660731811256
4588,0.0
4589,27.107660731811256
4590,0.0
2,1,10, 1, 0,22, 0.00,60.00,Tuesday
96,0.0
1960,27.340881455693486
1963,27.459448513746556
2329,43.07328240527957
4134,0.0
4224,0.0
4225,0.0
4230,0.0
4231,0.0
4236,0.0
4237,0.0
4317,0.0
4355,0.0
4407,0.0
4409,0.0
4417,0.0
4545,0.0
4574,0.0
4581,0.0
4587,27.17030404117711
4588,0.0
4589,27.17030404117711
4590,0.0
2,1,10, 1, 0,23, 0.00,60.00,Tuesday
96,0.0
1960,27.363301453459298
1963,27.596006970463315
2329,42.72743993218094
4134,0.0
4224,0.0
4225,0.0
4230,0.0
4231,0.0
4236,0.0
4237,0.0
4317,0.0
4355,0.0
4407,0.0
4409,0.0
4417,0.0
4545,0.0
4574,0.0
4581,0.0
4587,27.246759121658806
4588,0.0
4589,27.246759121658806
4590,0.0
2,1,10, 1, 0,24, 0.00,60.00,Tuesday
96,0.0
1960,27.392691330837257
1963,27.600353118741347
2329,42.716768128914939
4134,0.0
4224,0.0
4225,0.0
4230,0.0
4231,0.0
4236,0.0
4237,0.0
4317,0.0
4355,0.0
4407,0.0
4409,0.0
4417,0.0
4545,0.0
4574,0.0
4581,0.0
4587,27.280085955892635
4588,0.0
4589,27.280085955892635
4590,0.0
End of Data
 Number of Records Written=         552
